# vtk DataFile Version 3.0
Generated by FvKompasPlugin. Date/time (GMT): Wed Oct 29 15:29:51 2025
ASCII
DATASET UNSTRUCTURED_GRID
POINTS 1775 double
-0.04094584655761719 0.0454426155090332 -0.005
-0.04094584655761719 -0.00257575511932373 -0.005
-0.04096784591674805 -0.002481189012527466 -0.004816434860229492
-0.04124504470825195 -0.0003293749392032623 -0.0006393762826919555
-0.04124760437011719 0.001277974247932434 -0.0004445687234401703
-0.04124899673461914 0.002858917951583862 -0.0002876459956169129
-0.04124969100952149 0.004523945808410645 -0.0001593250334262848
-0.04125 0.009377265930175781 -4.983487851984575e-18
-0.04125 0.04 1.700303339253063e-18
-0.04121581649780273 0.04182741928100586 -0.00167901873588562
-0.03842606353759766 -0.007727241516113282 -0.015
-0.03842606353759766 0.048 -0.015
-0.0396927604675293 0.048 -0.01122707366943359
-0.0405899658203125 0.048 -0.007349636554718018
-0.04040504837036133 0.04904130554199219 -0.008306297302246093
-0.03963748931884765 0.05243196868896485 -0.01142068672180176
-0.03925428009033203 0.05151919937133789 -0.01267532920837402
-0.03798879623413086 0.04934637451171875 -0.01607525253295898
-0.03645513153076172 0.04772418594360352 -0.01930248069763184
-0.0346765251159668 0.04664047241210938 -0.02234057235717773
-0.03264864730834961 0.04607589721679688 -0.02521167182922363
-0.03038397979736328 0.04603247833251953 -0.0278993968963623
-0.02789168930053711 0.0465124397277832 -0.03039105415344238
-0.02515243339538574 0.04753273010253906 -0.03269430541992187
-0.02218629455566406 0.04910491561889649 -0.03477543258666992
-0.01901020050048828 0.05123606491088867 -0.0366083984375
-0.015647216796875 0.05392517471313477 -0.03816709518432617
-0.01212120532989502 0.05716624832153321 -0.03942890930175781
-0.01018135356903076 0.05446114730834961 -0.03997377395629883
-0.009330817222595215 0.05327063751220703 -0.04018082046508789
-0.008336528778076172 0.05186941528320312 -0.04039882278442383
-0.006495154857635499 0.04925835037231446 -0.04073543167114258
-0.005013618946075439 0.04715497970581055 -0.04094418334960938
-0.003122044324874878 0.04446200180053711 -0.04113168334960938
-0.001021900057792664 0.04146026611328125 -0.04123733901977539
-6.869313535422077e-18 0.04 -0.04125
0.000282057523727417 0.04040330123901367 -0.0412490348815918
0.004427618980407715 0.04632204437255859 -0.04101168823242188
0.007783693313598633 0.0510849609375 -0.04050896835327149
0.0106743860244751 0.05515216827392578 -0.0398449478149414
0.01212003421783447 0.05716739273071289 -0.03942926788330078
0.01346055507659912 0.05588714981079101 -0.03899199676513672
0.01689357757568359 0.05288033294677735 -0.03763202667236328
0.02015570831298828 0.05041864013671875 -0.03599041366577149
0.0232269287109375 0.04850365447998047 -0.03408917999267578
0.02606838607788086 0.04714105987548829 -0.0319687614440918
0.02869700622558594 0.04630542755126953 -0.02963181304931641
0.03111501121520996 0.04599000930786133 -0.02708170127868652
0.033308349609375 0.04619641494750976 -0.02433344268798828
0.03526505661010743 0.04692638397216797 -0.02139949417114258
0.03699340438842773 0.04820312881469727 -0.01824967575073242
0.03845964813232422 0.0500377197265625 -0.01491368103027344
0.03963745498657226 0.052431884765625 -0.01142080116271973
0.03980900573730469 0.05176462936401367 -0.01080765914916992
0.04059001159667969 0.048 -0.007349390983581543
0.03969279479980469 0.048 -0.01122695350646973
0.03842606353759766 0.048 -0.015
0.03842606353759766 -0.007727241516113282 -0.015
0.03751102066040039 -0.008840304374694824 -0.01716059303283692
0.03560088348388672 -0.01073372077941894 -0.02083601760864258
0.03443821716308594 -0.01169713497161865 -0.02270620155334473
0.03284160995483398 -0.012858078956604 -0.02495978927612305
0.03136697006225586 -0.01380064964294434 -0.02678946876525879
0.02997263336181641 -0.01459983158111572 -0.02834085083007813
0.02805049705505371 -0.01558052730560303 -0.03024453735351562
0.02641475296020508 -0.0163216438293457 -0.03168317031860352
0.02490264320373535 -0.01694073867797852 -0.03288496398925781
0.0225402889251709 -0.01779697227478027 -0.03454703903198243
0.02100975799560547 -0.01828717231750488 -0.03549862670898438
0.01909259605407715 -0.01883676719665527 -0.03656549453735352
0.01679155921936035 -0.01940970420837402 -0.03767766189575195
0.01411492156982422 -0.01996723175048828 -0.03875992202758789
0.01205284976959228 -0.0203226547241211 -0.03944985961914062
0.009654498100280762 -0.02065978050231934 -0.04010427856445312
0.006894644260406494 -0.02095106887817383 -0.04066972351074219
0.004497621059417724 -0.02112331008911133 -0.04100407028198242
0.002253054141998291 -0.02121827888488769 -0.04118842315673828
-0.0005425456166267395 -0.02124816131591797 -0.04124643325805664
-0.002963830947875977 -0.02119507789611817 -0.04114338684082031
-0.005471780776977539 -0.02106221389770508 -0.0408854751586914
-0.008264389038085938 -0.02081914901733398 -0.04041363906860352
-0.0101728343963623 -0.02059366607666016 -0.0399759407043457
-0.01244208240509033 -0.02026031112670898 -0.03932883453369141
-0.01464532947540283 -0.0198656005859375 -0.0385626335144043
-0.016505126953125 -0.01947479057312012 -0.03780401229858398
-0.01810026550292969 -0.01909498596191406 -0.03706673431396484
-0.01993424034118652 -0.01860395050048828 -0.03611355209350586
-0.02248652267456055 -0.01781501579284668 -0.03458205795288086
-0.02490263557434082 -0.01694074249267578 -0.03288497161865234
-0.02732433319091797 -0.01591930866241455 -0.03090215682983399
-0.02977994346618652 -0.0147041015625 -0.02854325675964356
-0.03179837036132813 -0.01353608798980713 -0.02627596092224121
-0.03317022705078125 -0.01263223171234131 -0.02452139091491699
-0.0346658821105957 -0.01151728439331055 -0.02235708236694336
-0.0367264404296875 -0.009675134658813476 -0.01878113174438477
0.04094584655761719 -0.00257575511932373 -0.005
0.04094584655761719 0.04544189071655273 -0.005
0.04103779602050781 0.04454828643798828 -0.004178714752197265
0.04125 0.04 8.401323815912564e-19
0.04125 0.009377265930175781 2.571477043141466e-18
0.04124969100952149 0.004523945808410645 -0.0001593250334262848
0.04124899673461914 0.002858917951583862 -0.0002876459956169129
0.04124760437011719 0.001277974247932434 -0.0004445687234401703
0.04124504470825195 -0.0003293749392032623 -0.0006393762826919555
0.04124179840087891 -0.0004237027168273926 -0.0008224909901618958
0.03551647186279297 0.06542979431152345 -0.002866764545440674
0.03349166107177735 0.06757282257080079 -0.003419548273086548
0.03056979560852051 0.07060092926025391 -0.004313855171203613
0.02891872215270996 0.0722503433227539 -0.00486385440826416
0.0255637321472168 0.07546896362304688 -0.006087942600250244
0.02294013595581055 0.07785415649414062 -0.007150303840637207
0.02083932113647461 0.07967430114746094 -0.008072862625122071
0.01881243515014648 0.08134913635253907 -0.009029062271118164
0.01719021606445312 0.08262738800048829 -0.009845357894897461
0.01564761543273926 0.08378759765625 -0.01066804790496826
0.01410360717773437 0.08489030456542969 -0.01154193592071533
0.0120538501739502 0.08625411224365234 -0.01279230880737305
0.009536983489990235 0.08774440002441407 -0.01450007343292236
0.006985526084899903 0.08894012451171875 -0.01640087127685547
0.004576758861541748 0.08969129180908203 -0.01833662033081055
0.004301803588867188 0.08972736358642579 -0.01847409820556641
0.002801449537277222 0.08988455963134766 -0.01922427558898926
0.001953591942787171 0.08994389343261719 -0.0196482048034668
0.001385564208030701 0.08997178649902345 -0.01993221855163574
0.0008622213602066041 0.08998907470703126 -0.02019388961791992
0.0005880179405212402 0.08999491882324219 -0.02033099174499512
0.000446748822927475 0.0899970703125 -0.02040162467956543
0.0003719567060470581 0.08999797058105469 -0.02043902206420899
0.0003304048478603363 0.08999839782714844 -0.02045979690551758
0.0001255670040845871 0.08999974822998047 -0.02055977058410645
7.023084163665772e-05 0.08999991607666016 -0.02058792686462402
2.441747300326824e-05 0.08999999237060546 -0.02061201095581055
9.405403397977352e-06 0.09 -0.0206199836730957
-2.073090726861793e-13 0.09 -0.020625
-1.794039830565453e-05 0.08999999237060546 -0.02061511039733887
-5.03731481730938e-05 0.08999995422363281 -0.02059738540649414
-0.0001483622491359711 0.08999964141845704 -0.02054715156555176
-0.0003552072942256928 0.08999814605712891 -0.02044739723205567
-0.0007135958671569824 0.08999251556396484 -0.02026820182800293
-0.001193084597587585 0.08997908020019531 -0.02002845764160156
-0.002432617664337158 0.08991297912597657 -0.01940869140625
-0.003703057050704956 0.0897981185913086 -0.01877347183227539
-0.004547801494598389 0.08969519805908203 -0.01835109901428223
-0.004952360630035401 0.08959870147705078 -0.01801714324951172
-0.007394357681274414 0.0887714614868164 -0.01608103942871094
-0.009339282989501953 0.08784848785400391 -0.01463987636566162
-0.01160968589782715 0.086533203125 -0.01307883262634277
-0.01350394725799561 0.08530160522460938 -0.01189631748199463
-0.01525976848602295 0.08407025909423828 -0.01088255596160889
-0.01682768821716309 0.08290480804443359 -0.01003428840637207
-0.01864493751525879 0.08148384094238281 -0.009111217498779297
-0.02066364097595215 0.07982265472412109 -0.008153057098388672
-0.02363763618469238 0.07723171997070313 -0.006858376979827881
-0.02633656120300293 0.07474373626708984 -0.00579292631149292
-0.02842947006225586 0.07273104095458985 -0.005033379077911377
-0.03192723083496094 0.06921331024169922 -0.003886533260345459
-0.03551562118530274 0.06543153381347656 -0.002867188692092896
-0.03592012405395508 0.06458267974853515 -0.002664938688278198
-0.03682721710205078 0.06252454376220704 -0.00221139121055603
-0.03776885986328125 0.0601035270690918 -0.001740570545196533
-0.03866077041625977 0.05743548583984375 -0.001294615030288696
-0.03941753387451172 0.05473714447021485 -0.0009162328839302063
-0.039939697265625 0.0525020751953125 -0.0006551505327224732
-0.040251953125 0.0509321403503418 -0.0004990226626396179
[...]
CELL_DATA 3544
FIELD FieldData 1
PATCH_IDS 1 3544 int
1 1 1 1 1 1 1 1 2 2 2 2 2 2 2 2 2 2 2 2
2 2 2 2 2 2 2 2 2 2 2 2 2 2 2 2 2 2 2 2
2 2 2 2 2 2 2 2 2 2 2 2 2 2 2 2 2 2 2 2
2 2 2 2 2 2 2 2 2 2 2 2 2 2 2 2 2 2 2 2
2 2 2 2 2 2 2 2 2 2 2 3 3 3 3 3 3 3 3 4
4 5 5 5 5 5 5 5 5 5 5 5 5 5 5 5 5 5 5 5
5 5 5 5 5 5 5 5 5 5 5 5 5 5 5 5 5 5 5 5
5 5 5 5 5 5 5 5 5 5 5 5 5 5 5 5 5 5 5 5
5 5 5 5 5 5 5 5 5 5 5 5 5 5 5 5 5 5 5 5
5 5 5 5 6 6 6 6 6 6 6 6 6 6 6 7 7 7 7 7
7 7 7 7 7 8 8 8 8 8 8 8 8 8 8 8 8 8 8 8
8 8 8 8 8 8 8 8 8 8 8 8 8 8 8 8 8 8 8 8
8 8 8 8 9 9 9 9 9 9 9 9 9 9 9 9 9 9 9 9
9 9 9 9 9 9 9 9 9 10 10 10 10 10 10 10 10 10 10 10
10 10 10 10 10 10 10 10 10 11 11 11 11 11 11 11 11 11 11 11
11 11 11 11 11 11 11 11 11 11 11 11 11 11 11 11 11 11 11 11
11 11 11 11 11 11 11 11 11 11 11 11 12 12 12 12 12 12 12 12
12 12 12 12 12 12 12 12 12 12 12 12 12 12 12 12 12 12 12 12
12 12 12 12 12 12 12 12 12 12 12 12 12 12 12 12 12 12 12 12
12 12 12 12 12 12 12 12 12 12 12 12 12 12 12 12 12 12 12 12
12 12 12 12 12 12 12 12 13 13 13 13 13 13 13 13 13 13 13 13
13 13 13 13 13 13 13 13 13 13 13 13 13 13 13 13 13 13 13 13
13 13 13 13 13 13 13 13 13 13 13 13 13 13 13 13 13 13 13 13
13 13 13 13 13 13 14 14 14 14 14 14 14 14 14 14 14 14 14 14
14 14 14 14 14 14 14 14 14 14 14 14 14 14 14 14 14 14 14 14
14 14 14 14 14 14 14 14 14 14 14 14 14 14 14 14 14 14 14 14
14 14 14 14 14 14 14 14 14 14 14 14 14 14 14 14 14 15 15 15
15 15 15 15 15 15 15 15 15 15 15 15 15 15 15 15 15 15 15 15
15 15 15 15 15 15 15 15 15 15 15 15 15 15 15 15 15 15 15 15
15 15 15 16 16 16 16 16 16 16 16 16 16 16 16 17 17 17 17 17
17 17 17 17 17 17 17 17 17 17 17 18 18 18 18 18 18 18 18 18
18 18 18 18 18 18 18 18 19 19 19 19 19 19 19 19 19 19 19 19
20 20 20 20 20 20 20 20 20 20 20 20 20 20 20 20 20 20 20 20
20 20 20 20 20 20 20 20 20 20 20 20 20 20 20 20 20 20 20 20
20 20 20 20 20 20 20 20 20 20 20 20 20 20 20 20 20 20 20 20
20 20 20 20 20 20 20 20 20 20 20 20 20 20 20 20 20 20 20 20
21 21 21 21 21 21 21 21 21 21 21 21 21 21 21 21 21 21 21 21
21 21 21 21 21 21 21 21 21 21 21 21 21 21 21 21 21 21 21 21
21 21 21 21 21 21 21 21 21 21 21 21 21 21 21 21 21 21 21 21
21 21 21 21 21 21 21 21 21 21 21 21 21 21 21 21 21 21 21 21
21 22 22 22 22 22 22 22 22 22 22 23 23 24 24 24 24 24 24 24
24 24 24 24 24 24 24 24 24 24 24 24 24 24 24 24 24 24 24 24
24 24 24 24 24 24 24 24 24 24 24 24 24 24 24 24 24 24 24 24
24 24 24 24 24 24 24 24 24 24 24 24 24 24 24 24 24 24 24 24
24 24 24 24 24 24 24 24 24 24 24 24 24 24 24 24 24 24 24 24
24 24 24 24 24 24 24 24 24 24 24 24 24 24 24 24 24 24 24 24
24 24 24 24 24 24 24 24 24 24 24 24 24 24 24 24 24 24 24 24
24 24 24 24 24 24 24 25 25 25 25 25 26 26 26 26 26 26 26 26
26 26 26 26 26 26 26 26 26 26 26 26 26 26 26 26 26 27 27 27
27 27 27 27 27 27 27 27 27 27 27 27 27 27 27 27 27 27 27 27
27 27 27 27 27 27 27 27 27 27 27 27 27 27 27 27 27 27 27 27
27 27 27 27 27 27 27 27 27 27 27 27 27 27 27 27 27 27 27 27
27 27 27 27 27 27 27 27 27 27 27 27 27 27 27 27 27 27 27 27
27 27 27 27 27 27 27 27 27 27 27 27 27 27 27 27 27 27 27 27
27 27 27 27 27 27 27 27 27 27 27 27 27 27 27 27 27 27 27 27
27 27 27 27 27 27 27 27 28 28 28 28 28 28 28 28 28 28 28 28
28 28 28 28 28 28 28 28 28 28 28 28 28 28 28 28 28 28 28 28
28 28 28 28 28 28 28 28 28 28 28 28 28 28 28 28 28 28 28 28
28 28 28 28 28 28 28 28 28 28 28 28 28 28 28 28 28 28 28 28
28 29 29 29 29 29 30 30 30 30 30 30 30 30 30 30 30 30 30 30
30 30 30 30 30 30 30 30 30 30 30 30 30 30 30 30 30 30 30 30
30 30 30 30 30 30 30 30 30 30 30 30 30 30 30 30 30 30 30 30
30 30 30 30 30 30 30 30 30 30 30 30 30 30 30 30 30 30 30 30
30 30 30 30 30 30 30 30 30 30 30 30 30 30 30 30 30 30 30 30
30 30 30 30 30 31 31 31 31 31 31 32 32 32 32 32 32 32 32 32
32 32 32 32 32 32 32 32 32 32 32 32 32 32 32 32 32 32 32 32
32 32 32 32 32 32 32 32 32 32 32 32 32 32 32 32 32 32 32 32
32 32 32 32 32 32 32 32 32 32 32 32 32 32 32 32 32 32 32 32
32 32 32 32 32 32 32 32 32 32 32 32 32 32 32 32 32 32 32 32
32 32 32 32 32 32 32 32 32 32 33 33 33 33 33 33 33 33 33 33
33 33 33 33 33 33 33 33 33 33 33 33 33 33 33 33 33 33 33 33
33 33 33 33 33 33 33 33 33 33 33 33 33 33 33 33 33 33 33 33
33 33 33 33 33 33 33 33 33 33 33 33 33 33 33 33 33 33 33 33
33 33 33 33 33 33 34 34 34 34 34 34 34 34 34 34 34 34 34 34
34 34 34 34 34 34 34 34 34 34 34 34 34 34 34 34 34 34 34 34
34 34 34 34 34 34 34 34 34 35 35 35 35 35 35 35 35 35 35 36
36 36 36 36 36 36 36 36 36 36 36 36 36 36 36 36 36 36 36 36
36 36 36 36 36 36 36 36 36 36 37 37 37 37 37 37 37 38 38 38
38 38 38 38 38 38 38 38 38 38 38 38 38 38 38 38 38 38 38 38
38 38 38 38 38 38 38 38 38 39 39 39 39 39 39 39 39 39 39 39
39 39 39 39 39 39 39 39 39 39 39 39 39 39 39 39 39 39 39 39
39 39 39 39 39 39 39 39 39 39 39 39 40 40 40 40 40 40 40 40
40 40 40 40 40 40 40 40 40 40 40 40 40 40 40 40 40 40 40 40
40 40 40 40 40 40 40 40 40 40 40 41 41 41 41 41 41 41 41 41
41 41 41 41 41 41 41 41 41 41 41 41 41 41 41 41 41 41 41 41
41 41 41 41 41 41 41 41 41 41 41 41 41 41 41 41 41 41 41 41
41 41 41 41 41 41 41 41 41 41 41 41 41 41 41 41 41 41 41 41
41 42 42 42 42 42 42 42 42 42 42 42 42 42 42 42 42 42 42 42
42 42 42 42 42 42 42 42 42 42 42 42 42 42 42 42 42 42 42 42
42 42 42 42 42 42 42 42 42 42 42 42 42 42 42 42 42 42 42 42
42 42 42 42 42 42 42 42 42 42 42 42 43 43 43 43 43 43 43 43
43 43 43 43 43 43 43 43 43 43 43 43 43 43 43 43 43 43 43 43
43 43 43 43 43 43 43 43 43 43 43 43 43 43 43 43 43 43 43 43
43 43 43 43 43 43 44 44 44 44 44 44 44 44 44 44 44 44 44 44
44 44 44 44 44 44 44 44 44 44 44 44 44 44 44 44 44 44 44 44
44 44 44 44 44 44 44 44 44 44 44 44 44 44 44 44 44 44 44 44
44 44 44 44 44 44 44 44 44 44 44 44 44 44 44 44 44 44 44 44
44 44 44 44 44 44 44 44 44 44 44 44 44 44 44 44 44 44 44 44
44 44 44 44 44 44 44 44 44 44 44 44 44 44 44 44 44 44 44 44
44 44 44 44 44 44 45 45 45 45 45 45 45 45 45 45 45 45 45 45
45 45 45 45 45 45 45 45 45 45 45 45 45 45 45 45 45 45 45 45
45 45 45 45 45 45 45 45 45 45 45 45 45 45 45 45 45 45 45 45
45 45 45 45 45 45 45 45 45 45 45 45 45 45 45 45 45 45 45 45
45 45 45 45 45 45 45 45 45 45 45 45 45 45 45 45 45 45 45 45
45 45 45 45 45 45 45 45 45 45 45 45 45 45 45 45 45 45 45 45
45 45 45 45 45 45 45 45 45 45 45 45 46 46 46 46 46 46 46 46
46 46 46 46 46 46 46 46 46 46 46 46 46 46 46 46 46 46 46 46
46 46 46 46 46 46 46 46 47 47 47 47 47 47 47 47 47 47 47 47
47 47 47 47 47 47 47 47 47 47 47 47 48 48 48 48 48 48 48 48
48 48 48 48 48 48 48 48 48 48 48 48 48 48 48 48 48 48 48 48
48 48 48 48 48 48 48 48 48 48 48 48 48 48 48 48 48 48 48 48
48 48 48 48 48 48 48 48 48 48 48 48 48 48 48 48 48 48 48 48
48 48 48 48 48 48 48 48 48 48 48 48 48 48 48 48 48 48 48 48
48 48 48 48 48 48 48 48 48 48 48 48 48 48 48 48 48 48 48 48
48 48 48 48 48 48 48 48 48 48 48 48 48 48 48 48 48 48 48 48
48 48 48 48 48 48 48 48 48 48 48 48 48 48 48 48 48 48 48 48
48 48 48 48 48 48 48 48 48 48 48 48 48 48 48 48 48 48 48 48
48 48 48 48 48 48 48 48 48 48 48 48 48 48 48 48 48 48 48 48
48 48 48 48 48 48 48 48 48 48 48 48 48 48 48 48 48 48 48 48
48 48 48 48 48 48 48 48 48 48 48 48 48 48 48 48 48 48 48 48
48 48 48 48 48 48 48 48 48 48 48 48 48 48 48 48 48 48 48 48
48 48 48 48 48 48 48 48 48 48 48 48 48 48 48 48 48 48 48 48
48 48 48 48 48 48 48 48 48 48 48 48 48 48 48 48 48 48 48 48
48 48 48 48 48 48 48 48 48 48 48 48 48 48 48 48 48 48 48 48
48 48 48 48 48 48 48 48 48 48 48 48 48 48 48 48 48 48 48 48
48 48 48 48 48 48 48 48 48 48 48 48 48 48 48 48 48 48 48 48
48 48 48 48 48 48 48 48 48 48 48 48 48 48 48 48 48 48 48 48
48 48 48 48 48 48 48 48 48 48 48 48 48 48 48 48 48 48 48 48
48 48 48 48 48 48 48 48 48 48 48 48 48 48 48 48 48 48 48 48
48 48 48 48 48 48 48 48 48 48 48 48 48 48 48 48 48 48 48 48
48 48 48 48 48 48 48 48 48 48 48 48 48 48 48 48 48 48 48 48
48 48 48 48 48 48 48 48 48 48 48 48 48 48 48 48 48 48 48 48
48 48 48 48 48 48 48 48 48 48 48 48 48 48 48 48 48 48 48 48
48 48 48 48 48 48 48 48 48 48 48 48 48 48 48 48 48 48 48 48
48 48 48 48 48 48 48 48 48 48 48 48 48 48 48 48 48 48 48 48
48 48 48 48 48 48 48 48 48 48 48 48 48 48 48 48 48 48 48 48
48 48 48 48 48 48 48 48 48 48 48 48 48 48 48 48 48 48 48 48
48 48 48 48 48 48 48 48 48 48 48 48 48 48 48 48 48 48 48 48
48 48 48 48 48 48 48 48 48 48 48 48 48 48 48 48 48 48 48 48
48 48 48 48 48 48 48 48 48 48 48 48 48 48 48 48 48 48 48 48
48 48 48 48 48 48 48 48 48 48 48 48 48 48 48 48 48 48 48 48
48 48 48 48 48 48 48 48 48 48 48 48 48 48 48 48 48 48 48 48
48 48 48 48 48 48 48 48 48 48 48 48 48 48 48 48 48 48 48 48
48 48 48 48 48 48 48 48 48 48 48 48 48 48 48 48 48 48 48 48
48 48 48 48 48 48 48 48 48 48 48 48 48 48 48 48 48 48 48 48
48 48 48 48 48 48 48 48 48 48 48 48 48 48 48 48 48 48 48 48
48 48 48 48 48 48 48 48 48 48 48 48 48 48 48 48 48 48 48 48
48 48 48 48 48 48 48 49 49 49 49 49 49 49 49 49 49 49 49 49
49 49 49 49 49 49 49 49 49 49 49 49 50 50 50 50 50 50 50 50
50 50 50 50 50 50 50 50 50 50 50 50 50 50 50 50 50 50 50 50
51 51 51 51 51 51 51 51 51 51 51 51 51 51 51 51 51 51 51 51
51 51 51 51 51 51 51 51 51 51 51 51 51 51 51 51 51 51 51 51
51 51 51 51 51 51 51 51 51 51 51 51 51 51 51 51 51 51 51 51
51 51 51 51 51 51 52 52 52 52 53 53 53 53 53 53 53 54 54 54
54 55 55 55 55 55 55 55 56 56 56 56 56 56 56 56 56 56 56 56
56 56 56 56 56 56 56 56 56 56 56 56 56 56 56 56 56 56 56 56
56 56 56 56 56 56 56 56 56 56 56 56 56 56 56 56 56 56 56 56
56 56 56 56 56 56 56 56 56 56 56 56 56 56 56 56 56 57 57 57
57 57 57 57 57 57 57 57 57 57 57 57 57 57 57 57 57 57 57 57
57 57 57 57 57 57 57 57 57 57 57 57 57 57 57 57 57 57 57 57
57 57 57 57 57 57 57 57 57 57 57 57 57 57 57 57 57 57 57 57
57 57 57 57 57 57 57 57 57 57 57 57 57 57 57 57 57 57 57 57
57 57 57 57 57 57 57 57 57 57 57 57 57 57 57 57 57 57 57 57
57 57 57 57 57 57 57 57 57 57 57 57 57 57 57 57 57 57 57 57
57 57 57 57 57 57 57 57 57 57 57 57 57 57 57 57 57 57 57 57
57 57 57 57 57 57 57 57 57 57 57 57 57 57 57 57 57 57 57 57
57 57 57 57 57 57 57 57 57 57 57 57 57 57 57 57 57 57 57 57
57 57 57 57 57 57 57 57 57 57 57 57 57 57 57 57 57 57 57 58
58 58 58 58 58 58 58 58 58 58 58 58 58 58 58 58 58 58 58 58
58 58 58 58 58 58 58 59 59 59 59 59 59 59 59 59 59 59 59 59
59 59 59 59 59 59 59 59 59 59 59 59 59 59 60 60 60 60 60 60
60 60 60 60 60 60 60 60 60 60 60 60 60 60 60 60 60 60 60 60
60 60 60 60 61 61 61 61 61 61 61 61 61 61 61 61 61 61 61 62
62 62 62 62 62 62 62 62 62 62 62 62 62 62 62 62 62 62 62 62
62 62 62 62 62 63 63 63 63 63 63 63 63 63 63 63 63 63 63 63
64 64 64 64 64 64 64 64 65 65 65 65 65 65 65 65 65 65 65 65
65 65 65 65 65 65 65 65 65 65 65 65 65 65 65 65 65 66 66 66
66 66 66 66 

