# vtk DataFile Version 3.0
Generated by FvKompasPlugin. Date/time (GMT): Wed Oct 29 15:29:51 2025
ASCII
DATASET UNSTRUCTURED_GRID
POINTS 8 double
-0.05775000000000001 -0.30375 -0.12375
-0.05775000000000001 -0.30375 0.08250000000000005
-0.05775000000000001 0.3525 -0.12375
-0.05775000000000001 0.3525 0.08250000000000005
0.05775000000000001 -0.30375 -0.12375
0.05775000000000001 -0.30375 0.08250000000000005
0.05775000000000001 0.3525 -0.12375
0.05775000000000001 0.3525 0.08250000000000005

CELLS 12 48
3 0 1 3
3 0 2 3
3 0 1 5
3 0 4 5
3 0 2 6
3 0 4 6
3 7 6 4
3 7 5 4
3 7 6 2
3 7 3 2
3 7 3 1
3 7 5 1

CELL_TYPES 12
5 5 5 5 5 5 5 5 5 5 5 5

CELL_DATA 12
FIELD FieldData 1
PATCH_IDS 1 12 int
1 1 2 2 3 3 4 4 5 5 6 6 

